[
    {
        "question": "What is the surface area of Earth in square kilometers?",
        "answer": "510072000"
    },
    {
        "question": "What is the distance from the Earth to the Moon in kilometers?",
        "answer": "384400"
    },
    {
        "question": "What is the height of Mount Everest in meters?",
        "answer": "8848"
    },
    {
        "question": "What is the speed of light in meters per second?",
        "answer": "299792458"
    },
    {
        "question": "What is the volume of the Great Pyramid of Giza in cubic meters?",
        "answer": "2583283"
    },
    {
        "question": "What is the length of the equator in kilometers?",
        "answer": "40075"
    },
    {
        "question": "What is the weight of the world's heaviest lemon in grams?",
        "answer": "5265"
    },
    {
        "question": "What is the number of bones in an adult human body?",
        "answer": "206"
    },
    {
        "question": "What is the number of chromosomes in a human cell?",
        "answer": "46"
    },
    {
        "question": "What is the distance from the Earth to the Sun in kilometers?",
        "answer": "149597870"
    },
    {
        "question": "What is the depth of the Mariana Trench in meters?",
        "answer": "10994"
    },
    {
        "question": "What is the diameter of Jupiter in kilometers?",
        "answer": "139822"
    },
    {
        "question": "What is the height of the tallest building in the world the Burj Khalifa in Dubai?",
        "answer": "828"
    },
    {
        "question": "What is the diameter of the Earth's moon in kilometers?",
        "answer": "3474"
    },
    {
        "question": "What is the length of the Great Wall of China in kilometers?",
        "answer": "21196"
    },
    {
        "question": "What is the length of a marathon in kilometers?",
        "answer": "42.195"
    },
    {
        "question": "What is the number of elements in the periodic table?",
        "answer": "118"
    },
    {
        "question": "What is the distance from Earth to the nearest star Proxima Centauri in kilometers?",
        "answer": "40208000000000"
    },
    {
        "question": "What is the weight of the heaviest recorded human Jon Brower Minnoch in kilograms?",
        "answer": "635"
    },
    {
        "question": "What is the number of countries in Africa?",
        "answer": "54"
    },
    {
        "question": "What is the number of bones in a human foot?",
        "answer": "26"
    },
    {
        "question": "What is the number of bones in a human hand?",
        "answer": "27"
    },
    {
        "question": "What is the number of syllables in a haiku?",
        "answer": "17"
    },
    {
        "question": "What is the number of calories in a pound of body fat?",
        "answer": "3500"
    },
    {
        "question": "What is the number of Olympic gold medals won by Michael Phelps?",
        "answer": "23"
    },
    {
        "question": "What is the number of digits in the largest prime number currently known?",
        "answer": "24862048"
    },
    {
        "question": "What is the maximum number of characters that can be included in a tweet on Twitter?",
        "answer": "280"
    },
    {
        "question": "What is the maximum number of USB devices that can be connected to a single USB port?",
        "answer": "127"
    },
    {
        "question": "What is the number of countries in the world?",
        "answer": "195"
    },
    {
        "question": "What is the maximum number of characters that can be included in an SMS text message?",
        "answer": "160"
    },
    {
        "question": "What is the atomic number of the element mendelevium?",
        "answer": "101"
    },
    {
        "question": "What is the maximum payload capacity of the SpaceX Falcon Heavy rocket in kilogram?",
        "answer": "63800"
    },
    {
        "question": "What is the melting point of tungsten in Fahrenheit?",
        "answer": "6191"
    },
    {
        "question": "What is the molecular weight of acetylsalicylic acid (aspirin)?",
        "answer": "180.16"
    },
    {
        "question": "What is the boiling point of liquid nitrogen in Fahrenheit?",
        "answer": "-320.42"
    },
    {
        "question": "What is the maximum altitude of the Lockheed U-2 reconnaissance aircraft in meters?",
        "answer": "21336"
    },
    {
        "question": "What is the specific heat capacity of water in SI units?",
        "answer": "4.184"
    },
    {
        "question": "What is the standard atmospheric pressure in kilopascals (kPa)?",
        "answer": "101.325"
    },
    {
        "question": "What is the freezing point of mercury in degrees Celsius?",
        "answer": "-38.83"
    },
    {
        "question": "What is the highest point on Earth above sea level in meters?",
        "answer": "8848"
    },
    {
        "question": "What is the melting point of tungsten in degrees Celsius?",
        "answer": "3422"
    },
    {
        "question": "What is the chemical formula for benzene?",
        "answer": "C6H6"
    },
    {
        "question": "Who invented the first programmable computer?",
        "answer": "Konrad Zuse"
    },
    {
        "question": "What is the atomic number of gold?",
        "answer": "79"
    },
    {
        "question": "Who discovered penicillin?",
        "answer": "Alexander Fleming"
    },
    {
        "question": "What is the chemical formula for glucose?",
        "answer": "C6H12O6"
    },
    {
        "question": "What is the name of the smallest bone in the human body?",
        "answer": "Stapes"
    },
    {
        "question": "What is the name of the largest moon in our solar system?",
        "answer": "Ganymede"
    },
    {
        "question": "Who discovered the process of pasteurization?",
        "answer": "Louis Pasteur"
    },
    {
        "question": "Who discovered the polio vaccine?",
        "answer": "Jonas Salk"
    },
    {
        "question": "Who was the first person to propose the idea of a heliocentric solar system?",
        "answer": "Nicolaus Copernicus"
    },
    {
        "question": "Who developed the first vaccine for smallpox?",
        "answer": "Edward Jenner"
    },
    {
        "question": "What is the name of the first woman to fly solo across the Atlantic?",
        "answer": "Amelia Earhart"
    },
    {
        "question": "Who discovered the structure of the benzene molecule?",
        "answer": "Friedrich August Kekul\u00e9"
    },
    {
        "question": "Who was the first person to propose the idea of continental drift?",
        "answer": "Alfred Wegener"
    },
    {
        "question": "Who was the first person to propose the concept of black holes?",
        "answer": "John Michell"
    },
    {
        "question": "Who is credited with inventing the printing press?",
        "answer": "Johannes Gutenberg"
    },
    {
        "question": "What is the name of the largest volcano on Earth?",
        "answer": "Mauna Loa"
    },
    {
        "question": "Who discovered the law of thermodynamics?",
        "answer": "Rudolf Clausius"
    },
    {
        "question": "Who first proposed the concept of genetics?",
        "answer": "Gregor Mendel"
    },
    {
        "question": "What is the name of the largest waterfall in the world?",
        "answer": "Victoria Falls"
    },
    {
        "question": "Who invented the first successful helicopter?",
        "answer": "Igor Sikorsky"
    },
    {
        "question": "What is the name of the largest canyon in the solar system?",
        "answer": "Valles Marineris"
    },
    {
        "question": "Who discovered the first exoplanet?",
        "answer": "Aleksander Wolszczan"
    },
    {
        "question": "Who discovered X-rays?",
        "answer": "Wilhelm Conrad Roentgen"
    },
    {
        "question": "What is the name of the first artificial element to be created?",
        "answer": "Technetium"
    },
    {
        "question": "Who developed the first effective treatment for tuberculosis?",
        "answer": "Selman Waksman"
    },
    {
        "question": "What is the name of the largest underground cave system in the world?",
        "answer": "Mammoth Cave"
    },
    {
        "question": "Who discovered the principle of least action?",
        "answer": "Pierre Louis Maupertuis"
    },
    {
        "question": "Who discovered the first dinosaur fossils?",
        "answer": "William Buckland"
    },
    {
        "question": "Who discovered the laws of planetary motion?",
        "answer": "Johannes Kepler"
    },
    {
        "question": "What is the name of the largest salt flat in the world?",
        "answer": "Salar de Uyuni"
    },
    {
        "question": "Who developed the first successful heart transplant?",
        "answer": "Christiaan Barnard"
    },
    {
        "question": "Who discovered the planet Uranus?",
        "answer": "William Herschel"
    },
    {
        "question": "Who discovered the principle of radioactivity?",
        "answer": "Henri Becquerel"
    },
    {
        "question": "What is the name of the largest living organism in the world?",
        "answer": "The Great Barrier Reef"
    },
    {
        "question": "Who discovered the first subatomic particle?",
        "answer": "J.J. Thomson"
    },
    {
        "question": "Who developed the first effective treatment for malaria?",
        "answer": "Ronald Ross"
    },
    {
        "question": "Who discovered the element oxygen?",
        "answer": "Joseph Priestley"
    },
    {
        "question": "Who developed the first successful kidney transplant?",
        "answer": "Richard Lawler"
    },
    {
        "question": "Who discovered the principle of electromagnetic induction?",
        "answer": "Michael Faraday"
    },
    {
        "question": "Who developed the first successful liver transplant?",
        "answer": "Thomas Starzl"
    },
    {
        "question": "Who discovered the element argon?",
        "answer": "Lord Rayleigh and Sir William Ramsay"
    },
    {
        "question": "Who developed the first successful lung transplant?",
        "answer": "Joel Cooper"
    },
    {
        "question": "Who developed the first effective treatment for tuberculosis?",
        "answer": "Robert Koch"
    },
    {
        "question": "Who discovered the phenomenon of superconductivity?",
        "answer": "Heike Kamerlingh Onnes"
    },
    {
        "question": "Who developed the first successful pancreas transplant?",
        "answer": "Richard Lillehei"
    },
    {
        "question": "Who developed the first successful bone marrow transplant?",
        "answer": "E. Donnall Thomas"
    },
    {
        "question": "What is the name of the largest delta in the world?",
        "answer": "Ganges Delta"
    },
    {
        "question": "Who developed the first successful artificial heart?",
        "answer": "Robert Jarvik"
    },
    {
        "question": "What is the name of the largest active volcano in Europe?",
        "answer": "Mount Etna"
    },
    {
        "question": "Who discovered the principle of buoyancy?",
        "answer": "Archimedes"
    },
    {
        "question": "Who developed the first successful heart-lung transplant?",
        "answer": "Norman Shumway"
    },
    {
        "question": "Who developed the first successful corneal transplant?",
        "answer": "Eduard Zirm"
    },
    {
        "question": "Who discovered the principle of the conservation of energy?",
        "answer": "Hermann von Helmholtz"
    },
    {
        "question": "What is the name of the oldest continuously inhabited city in the world?",
        "answer": "Damascus, Syria"
    },
    {
        "question": "What is the name of the largest moon in our solar system?",
        "answer": "Ganymede"
    },
    {
        "question": "What is the name of the largest asteroid in the asteroid belt?",
        "answer": "Ceres"
    },
    {
        "question": "What is the name of the particle that carries the weak nuclear force?",
        "answer": "W boson"
    },
    {
        "question": "What is the name of the largest moon of Saturn?",
        "answer": "Titan"
    }
]